
                                 *****************
                                 * O   R   C   A *
                                 *****************

           --- An Ab Initio, DFT and Semiempirical electronic structure package ---

                  #######################################################
                  #                        -***-                        #
                  #          Department of theory and spectroscopy      #
                  #               Directorship: Frank Neese             #
                  #        Max Planck Institute fuer Kohlenforschung    #
                  #                Kaiser Wilhelm Platz 1               #
                  #                 D-45470 Muelheim/Ruhr               #
                  #                      Germany                        #
                  #                                                     #
                  #                  All rights reserved                #
                  #                        -***-                        #
                  #######################################################


                         Program Version 4.1.0  - RELEASE  -


 With contributions from (in alphabetic order):
   Daniel Aravena         : Magnetic Properties
   Michael Atanasov       : Ab Initio Ligand Field Theory
   Alexander A. Auer      : GIAO ZORA
   Ute Becker             : Parallelization
   Giovanni Bistoni       : ED, Open-shell LED
   Martin Brehm           : Molecular dynamics
   Dmytro Bykov           : SCF Hessian
   Vijay G. Chilkuri      : MRCI spin determinant printing
   Dipayan Datta          : RHF DLPNO-CCSD density
   Achintya Kumar Dutta   : EOM-CC, STEOM-CC
   Dmitry Ganyushin       : Spin-Orbit,Spin-Spin,Magnetic field MRCI
   Miquel Garcia          : C-PCM Hessian
   Yang Guo               : DLPNO-NEVPT2, CIM, IAO-localization
   Andreas Hansen         : Spin unrestricted coupled pair/coupled cluster methods
   Benjamin Helmich-Paris : CASSCF linear response (MC-RPA)
   Lee Huntington         : MR-EOM, pCC
   Robert Izsak           : Overlap fitted RIJCOSX, COSX-SCS-MP3, EOM
   Christian Kollmar      : KDIIS, OOCD, Brueckner-CCSD(T), CCSD density
   Simone Kossmann        : Meta GGA functionals, TD-DFT gradient, OOMP2, MP2 Hessian
   Martin Krupicka        : AUTO-CI
   Lucas Lang             : DCDCAS
   Dagmar Lenk            : GEPOL surface, SMD
   Dimitrios Liakos       : Extrapolation schemes; parallel MDCI
   Dimitrios Manganas     : ROCIS; embedding schemes
   Dimitrios Pantazis     : SARC Basis sets
   Taras Petrenko         : DFT Hessian,TD-DFT gradient, ASA, ECA, R-Raman, ABS, FL, XAS/XES, NRVS
   Peter Pinski           : DLPNO-MP2, DLPNO-MP2 Gradient
   Christoph Reimann      : Effective Core Potentials
   Marius Retegan         : Local ZFS, SOC
   Christoph Riplinger    : Optimizer, TS searches, QM/MM, DLPNO-CCSD(T), (RO)-DLPNO pert. Triples
   Tobias Risthaus        : Range-separated hybrids, TD-DFT gradient, RPA, STAB
   Michael Roemelt        : Restricted open shell CIS
   Masaaki Saitow         : Open-shell DLPNO
   Barbara Sandhoefer     : DKH picture change effects
   Avijit Sen             : IP-ROCIS
   Kantharuban Sivalingam : CASSCF convergence, NEVPT2, FIC-MRCI
   Bernardo de Souza      : ESD, SOC TD-DFT
   Georgi Stoychev        : AutoAux, RI-MP2 NMR
   Willem Van den Heuvel  : Paramagnetic NMR
   Boris Wezisla          : Elementary symmetry handling
   Frank Wennmohs         : Technical directorship


 We gratefully acknowledge several colleagues who have allowed us to
 interface, adapt or use parts of their codes:
   Stefan Grimme, W. Hujo, H. Kruse,             : VdW corrections, initial TS optimization,
                  C. Bannwarth                     DFT functionals, gCP, sTDA/sTD-DF
   Ed Valeev                                     : LibInt (2-el integral package), F12 methods
   Garnet Chan, S. Sharma, J. Yang, R. Olivares  : DMRG
   Ulf Ekstrom                                   : XCFun DFT Library
   Mihaly Kallay                                 : mrcc  (arbitrary order and MRCC methods)
   Andreas Klamt, Michael Diedenhofen            : otool_cosmo (COSMO solvation model)
   Jiri Pittner, Ondrej Demel                    : Mk-CCSD
   Frank Weinhold                                : gennbo (NPA and NBO analysis)
   Christopher J. Cramer and Donald G. Truhlar   : smd solvation model
   Lars Goerigk                                  : TD-DFT with DH, B97 family of functionals
   V. Asgeirsson, H. Jonsson                     : NEB implementation
   FAccTs GmbH                                   : IRC, NEB, NEB-TS, Multilevel


 Your calculation uses the libint2 library for the computation of 2-el integrals
 For citations please refer to: http://libint.valeyev.net

 This ORCA versions uses:
   CBLAS   interface :  Fast vector & matrix operations
   LAPACKE interface :  Fast linear algebra routines
   SCALAPACK package :  Parallel linear algebra routines


----- Orbital basis set information -----
Your calculation utilizes the basis: def2-SVP
   F. Weigend and R. Ahlrichs, Phys. Chem. Chem. Phys. 7, 3297 (2005).

----- AuxJ basis set information -----
Your calculation utilizes the auxiliary basis: def2/J
   F. Weigend, Phys. Chem. Chem. Phys. 8, 1057 (2006).

================================================================================
                                        WARNINGS
                       Please study these warnings very carefully!
================================================================================

INFO   : Checking CIS options ...

WARNING: CIS/ROCIS methods need fully converged wavefunctions
  ===> : Setting SCFConvForced true
         You can overwrite this default with %scf ConvForced false 


INFO   : the flag for use of LIBINT has been found!

================================================================================
                                       INPUT FILE
================================================================================
NAME = Fe3O4.inp
|  1> ## avogadro generated ORCA input file 
|  2> # Advanced Mode
|  3> #
|  4> 
|  5> ! BP86 def2-SVP def2/J TightSCF
|  6> %maxcore 1000 # Memory settings often need to be modified when running TDDFT. Check batching info in the TDDFT output.
|  7> %tddft
|  8> nroots 150   # Setting the number of roots (transitions) to be calculated.
|  9> maxdim 5 # Davidson expansion space = MaxDim * nroots. Use MaxDim 5-10 for favorable convergence. Note that the larger MaxDim is, the more disk space is required
| 10> end
| 11> 
| 12> * xyz 0 1
| 13>   Fe        1.06667        7.46668        3.20001
| 14>   Fe        7.46668        5.33334        7.46668
| 15>   Fe        3.20001        7.46668        1.06667
| 16>   Fe        1.06667        5.33334        1.06667
| 17>   Fe        6.40001        2.13334        6.40001
| 18>   Fe        4.26668        0.00000        4.26668
| 19>   Fe        1.06667        3.20001        7.46668
| 20>   Fe        7.46668        1.06667        3.20001
| 21>   Fe        3.20001        3.20001        5.33334
| 22>   Fe        1.06667        1.06667        5.33334
| 23>   Fe        6.40001        6.40001        2.13334
| 24>   Fe        4.26668        4.26668        0.00000
| 25>   Fe        5.33334        7.46668        7.46668
| 26>   Fe        3.20001        5.33334        3.20001
| 27>   Fe        7.46668        7.46668        5.33334
| 28>   Fe        5.33334        5.33334        5.33334
| 29>   Fe        2.13334        2.13334        2.13334
| 30>   Fe        0.00000        0.00000        0.00000
| 31>   Fe        5.33334        3.20001        3.20001
| 32>   Fe        3.20001        1.06667        7.46668
| 33>   Fe        7.46668        3.20001        1.06667
| 34>   Fe        5.33334        1.06667        1.06667
| 35>   Fe        2.13334        6.40001        6.40001
| 36>   Fe        0.00000        4.26668        4.26668
| 37>    O        1.10378        7.42957        1.10378
| 38>    O        1.02955        5.29623        7.50380
| 39>    O        7.50380        3.23712        7.50380
| 40>    O        1.10378        5.37046        3.16289
| 41>    O        7.50380        5.29623        1.02955
| 42>    O        3.16289        7.42957        3.16289
| 43>    O        1.02955        3.23712        1.02955
| 44>    O        3.16289        5.37046        1.10378
| 45>    O        1.10378        3.16289        5.37046
| 46>    O        1.02955        1.02955        3.23712
| 47>    O        7.50380        7.50380        3.23712
| 48>    O        1.10378        1.10378        7.42957
| 49>    O        7.50380        1.02955        5.29623
| 50>    O        3.16289        3.16289        7.42957
| 51>    O        1.02955        7.50380        5.29623
| 52>    O        3.16289        1.10378        5.37046
| 53>    O        5.37046        7.42957        5.37046
| 54>    O        5.29623        5.29623        3.23712
| 55>    O        3.23712        3.23712        3.23712
| 56>    O        5.37046        5.37046        7.42957
| 57>    O        3.23712        5.29623        5.29623
| 58>    O        7.42957        7.42957        7.42957
| 59>    O        5.29623        3.23712        5.29623
| 60>    O        7.42957        5.37046        5.37046
| 61>    O        5.37046        3.16289        1.10378
| 62>    O        5.29623        1.02955        7.50380
| 63>    O        3.23712        7.50380        7.50380
| 64>    O        5.37046        1.10378        3.16289
| 65>    O        3.23712        1.02955        1.02955
| 66>    O        7.42957        3.16289        3.16289
| 67>    O        5.29623        7.50380        1.02955
| 68>    O        7.42957        1.10378        1.10378
| 69> *
| 70> 
| 71> 
| 72>                          ****END OF INPUT****
================================================================================

                       ****************************
                       * Single Point Calculation *
                       ****************************

---------------------------------
CARTESIAN COORDINATES (ANGSTROEM)
---------------------------------
  Fe     1.066670    7.466680    3.200010
  Fe     7.466680    5.333340    7.466680
  Fe     3.200010    7.466680    1.066670
  Fe     1.066670    5.333340    1.066670
  Fe     6.400010    2.133340    6.400010
  Fe     4.266680    0.000000    4.266680
  Fe     1.066670    3.200010    7.466680
  Fe     7.466680    1.066670    3.200010
  Fe     3.200010    3.200010    5.333340
  Fe     1.066670    1.066670    5.333340
  Fe     6.400010    6.400010    2.133340
  Fe     4.266680    4.266680    0.000000
  Fe     5.333340    7.466680    7.466680
  Fe     3.200010    5.333340    3.200010
  Fe     7.466680    7.466680    5.333340
  Fe     5.333340    5.333340    5.333340
  Fe     2.133340    2.133340    2.133340
  Fe     0.000000    0.000000    0.000000
  Fe     5.333340    3.200010    3.200010
  Fe     3.200010    1.066670    7.466680
  Fe     7.466680    3.200010    1.066670
  Fe     5.333340    1.066670    1.066670
  Fe     2.133340    6.400010    6.400010
  Fe     0.000000    4.266680    4.266680
  O      1.103780    7.429570    1.103780
  O      1.029550    5.296230    7.503800
  O      7.503800    3.237120    7.503800
  O      1.103780    5.370460    3.162890
  O      7.503800    5.296230    1.029550
  O      3.162890    7.429570    3.162890
  O      1.029550    3.237120    1.029550
  O      3.162890    5.370460    1.103780
  O      1.103780    3.162890    5.370460
  O      1.029550    1.029550    3.237120
  O      7.503800    7.503800    3.237120
  O      1.103780    1.103780    7.429570
  O      7.503800    1.029550    5.296230
  O      3.162890    3.162890    7.429570
  O      1.029550    7.503800    5.296230
  O      3.162890    1.103780    5.370460
  O      5.370460    7.429570    5.370460
  O      5.296230    5.296230    3.237120
  O      3.237120    3.237120    3.237120
  O      5.370460    5.370460    7.429570
  O      3.237120    5.296230    5.296230
  O      7.429570    7.429570    7.429570
  O      5.296230    3.237120    5.296230
  O      7.429570    5.370460    5.370460
  O      5.370460    3.162890    1.103780
  O      5.296230    1.029550    7.503800
  O      3.237120    7.503800    7.503800
  O      5.370460    1.103780    3.162890
  O      3.237120    1.029550    1.029550
  O      7.429570    3.162890    3.162890
  O      5.296230    7.503800    1.029550
  O      7.429570    1.103780    1.103780

----------------------------
CARTESIAN COORDINATES (A.U.)
----------------------------
  NO LB      ZA    FRAG     MASS         X           Y           Z
   0 Fe   26.0000    0    55.850    2.015714   14.109980    6.047143
   1 Fe   26.0000    0    55.850   14.109980   10.078552   14.109980
   2 Fe   26.0000    0    55.850    6.047143   14.109980    2.015714
   3 Fe   26.0000    0    55.850    2.015714   10.078552    2.015714
   4 Fe   26.0000    0    55.850   12.094266    4.031428   12.094266
   5 Fe   26.0000    0    55.850    8.062857    0.000000    8.062857
   6 Fe   26.0000    0    55.850    2.015714    6.047143   14.109980
   7 Fe   26.0000    0    55.850   14.109980    2.015714    6.047143
   8 Fe   26.0000    0    55.850    6.047143    6.047143   10.078552
   9 Fe   26.0000    0    55.850    2.015714    2.015714   10.078552
  10 Fe   26.0000    0    55.850   12.094266   12.094266    4.031428
  11 Fe   26.0000    0    55.850    8.062857    8.062857    0.000000
  12 Fe   26.0000    0    55.850   10.078552   14.109980   14.109980
  13 Fe   26.0000    0    55.850    6.047143   10.078552    6.047143
  14 Fe   26.0000    0    55.850   14.109980   14.109980   10.078552
  15 Fe   26.0000    0    55.850   10.078552   10.078552   10.078552
  16 Fe   26.0000    0    55.850    4.031428    4.031428    4.031428
  17 Fe   26.0000    0    55.850    0.000000    0.000000    0.000000
  18 Fe   26.0000    0    55.850   10.078552    6.047143    6.047143
  19 Fe   26.0000    0    55.850    6.047143    2.015714   14.109980
  20 Fe   26.0000    0    55.850   14.109980    6.047143    2.015714
  21 Fe   26.0000    0    55.850   10.078552    2.015714    2.015714
  22 Fe   26.0000    0    55.850    4.031428   12.094266   12.094266
  23 Fe   26.0000    0    55.850    0.000000    8.062857    8.062857
  24 O     8.0000    0    15.999    2.085842   14.039853    2.085842
  25 O     8.0000    0    15.999    1.945568   10.008424   14.180127
  26 O     8.0000    0    15.999   14.180127    6.117270   14.180127
  27 O     8.0000    0    15.999    2.085842   10.148699    5.976996
  28 O     8.0000    0    15.999   14.180127   10.008424    1.945568
  29 O     8.0000    0    15.999    5.976996   14.039853    5.976996
  30 O     8.0000    0    15.999    1.945568    6.117270    1.945568
  31 O     8.0000    0    15.999    5.976996   10.148699    2.085842
  32 O     8.0000    0    15.999    2.085842    5.976996   10.148699
  33 O     8.0000    0    15.999    1.945568    1.945568    6.117270
  34 O     8.0000    0    15.999   14.180127   14.180127    6.117270
  35 O     8.0000    0    15.999    2.085842    2.085842   14.039853
  36 O     8.0000    0    15.999   14.180127    1.945568   10.008424
  37 O     8.0000    0    15.999    5.976996    5.976996   14.039853
  38 O     8.0000    0    15.999    1.945568   14.180127   10.008424
  39 O     8.0000    0    15.999    5.976996    2.085842   10.148699
  40 O     8.0000    0    15.999   10.148699   14.039853   10.148699
  41 O     8.0000    0    15.999   10.008424   10.008424    6.117270
  42 O     8.0000    0    15.999    6.117270    6.117270    6.117270
  43 O     8.0000    0    15.999   10.148699   10.148699   14.039853
  44 O     8.0000    0    15.999    6.117270   10.008424   10.008424
  45 O     8.0000    0    15.999   14.039853   14.039853   14.039853
  46 O     8.0000    0    15.999   10.008424    6.117270   10.008424
  47 O     8.0000    0    15.999   14.039853   10.148699   10.148699
  48 O     8.0000    0    15.999   10.148699    5.976996    2.085842
  49 O     8.0000    0    15.999   10.008424    1.945568   14.180127
  50 O     8.0000    0    15.999    6.117270   14.180127   14.180127
  51 O     8.0000    0    15.999   10.148699    2.085842    5.976996
  52 O     8.0000    0    15.999    6.117270    1.945568    1.945568
  53 O     8.0000    0    15.999   14.039853    5.976996    5.976996
  54 O     8.0000    0    15.999   10.008424   14.180127    1.945568
  55 O     8.0000    0    15.999   14.039853    2.085842    2.085842

--------------------------------
INTERNAL COORDINATES (ANGSTROEM)
--------------------------------
 Fe     0   0   0     0.000000000000     0.00000000     0.00000000
 Fe     1   0   0     7.982214006440     0.00000000     0.00000000
 Fe     1   2   0     3.016998361153    79.10658689     0.00000000
 Fe     1   2   3     3.016998361153   100.89336142    56.25101672
 Fe     2   1   3     3.537735119791    80.72546061   271.80094012
 Fe     5   2   1     3.695041722823   150.50398717    11.03950438
 Fe     5   2   1     5.542570282225    93.32652114   316.16689001
 Fe     5   2   1     3.537735119791   117.03573166    84.26095747
 Fe     7   5   2     3.016998361153    35.26437562    94.71502677
 Fe     7   5   2     3.016998361153    74.20680282   154.71506123
 Fe     3   1   2     3.537735119791   115.23934427     3.67806565
 Fe     3   1   2     3.537735119791   115.23947088    74.20680282
 Fe     2   1   3     3.016998361153    40.89336142   123.74898328
 Fe     9   7   5     3.016984219017   120.00000000   215.26434748
 Fe     2   1   3     3.016998361153    55.46241181    41.36033913
 Fe     9   7   5     3.016984219017   120.00000000   285.79312685
 Fe     4   1   2     3.537735119791   115.23934427    35.26434748
 Fe    17   4   1     3.695053269819   100.02491880   146.44270823
 Fe     9   7   5     3.016984219017   179.99999829     0.00000000
 Fe     7   5   2     3.016998361153    35.26437562   214.71509569
 Fe     8   5   2     3.016998361153   115.23934427   320.33583868
 Fe     8   5   2     3.016998361153   115.23934427   253.22125514
 Fe     1   2   3     3.537735119791    36.31015410   174.37648786
 Fe     1   2   3     3.537735119791    80.72550447   118.12558280
 O      1   2   3     2.096886863209   121.02654043    13.91071155
 O     23   1   2     1.911814587401   121.48213417   213.55697184
 O      5   2   1     1.911814587401    29.49638414   191.03950438
 O     24   1   2     1.911808813899    29.49626179   286.77826497
 O     11   3   1     1.911814587401   121.48213417   140.33627407
 O      1   2   3     2.096877043343    37.17438592   343.46643938
 O     17   4   1     1.911814587401    29.49638414   146.44270823
 O     12   3   1     1.911808813899    29.49626179     0.00000000
 O     24   1   2     1.911808813899   121.48234609     0.00000000
 O     17   4   1     1.911814587401   121.48213417    73.22169054
 O     11   3   1     1.911814587401   121.48213417   286.77830946
 O      7   5   2     2.096886863209    77.71200621   200.00305295
 O      5   2   1     1.911814587401   121.48213417   117.81848668
 O      7   5   2     2.096877043343    14.35883280   334.71428213
 O     23   1   2     1.911814587401    29.49638414   140.33595415
 O      6   5   2     1.911808813899    70.52896076   299.99996124
 O     13   2   1     2.096877043343    88.56563561   324.73541704
 O     11   3   1     1.911803040378    79.97508120    33.55729177
 O     17   4   1     1.911803040378    79.97508120   326.44270823
 O      2   1   3     2.096877043343    35.34102494   198.00140048
 O     23   1   2     1.911803040378    79.97508120   320.33595415
 O      2   1   3     2.096886863209    73.09249855    86.64637210
 O      5   2   1     1.911803040378    79.97508120    11.03950438
 O      2   1   3     2.096877043343    56.40797508   347.60791190
 O     12   3   1     1.911808813899   121.48234609   286.77883884
 O      5   2   1     1.911814587401   121.48213417   264.26052207
 O     23   1   2     1.911814587401   121.48213417    67.11493645
 O      6   5   2     1.911808813899    70.52896076    60.00003876
 O     17   4   1     1.911814587401   121.48213417   219.66372593
 O      8   5   2     2.096877043343    73.09766395   333.30739850
 O     11   3   1     1.911814587401    29.49638414   213.55729177
 O      8   5   2     2.096886863209   153.32636472   286.77854691

---------------------------
INTERNAL COORDINATES (A.U.)
---------------------------
 Fe     0   0   0     0.000000000000     0.00000000     0.00000000
 Fe     1   0   0    15.084198414521     0.00000000     0.00000000
 Fe     1   2   0     5.701300649068    79.10658689     0.00000000
 Fe     1   2   3     5.701300649068   100.89336142    56.25101672
 Fe     2   1   3     6.685350510759    80.72546061   271.80094012
 Fe     5   2   1     6.982616909547   150.50398717    11.03950438
 Fe     5   2   1    10.473939911415    93.32652114   316.16689001
 Fe     5   2   1     6.685350510759   117.03573166    84.26095747
 Fe     7   5   2     5.701300649068    35.26437562    94.71502677
 Fe     7   5   2     5.701300649068    74.20680282   154.71506123
 Fe     3   1   2     6.685350510759   115.23934427     3.67806565
 Fe     3   1   2     6.685350510759   115.23947088    74.20680282
 Fe     2   1   3     5.701300649068    40.89336142   123.74898328
 Fe     9   7   5     5.701273924305   120.00000000   215.26434748
 Fe     2   1   3     5.701300649068    55.46241181    41.36033913
 Fe     9   7   5     5.701273924305   120.00000000   285.79312685
 Fe     4   1   2     6.685350510759   115.23934427    35.26434748
 Fe    17   4   1     6.982638730208   100.02491880   146.44270823
 Fe     9   7   5     5.701273924305   179.99999829     0.00000000
 Fe     7   5   2     5.701300649068    35.26437562   214.71509569
 Fe     8   5   2     5.701300649068   115.23934427   320.33583868
 Fe     8   5   2     5.701300649068   115.23934427   253.22125514
 Fe     1   2   3     6.685350510759    36.31015410   174.37648786
 Fe     1   2   3     6.685350510759    80.72550447   118.12558280
 O      1   2   3     3.962541905283   121.02654043    13.91071155
 O     23   1   2     3.612805989024   121.48213417   213.55697184
 O      5   2   1     3.612805989024    29.49638414   191.03950438
 O     24   1   2     3.612795078685    29.49626179   286.77826497
 O     11   3   1     3.612805989024   121.48213417   140.33627407
 O      1   2   3     3.962523348425    37.17438592   343.46643938
 O     17   4   1     3.612805989024    29.49638414   146.44270823
 O     12   3   1     3.612795078685    29.49626179     0.00000000
 O     24   1   2     3.612795078685   121.48234609     0.00000000
 O     17   4   1     3.612805989024   121.48213417    73.22169054
 O     11   3   1     3.612805989024   121.48213417   286.77830946
 O      7   5   2     3.962541905283    77.71200621   200.00305295
 O      5   2   1     3.612805989024   121.48213417   117.81848668
 O      7   5   2     3.962523348425    14.35883280   334.71428213
 O     23   1   2     3.612805989024    29.49638414   140.33595415
 O      6   5   2     3.612795078685    70.52896076   299.99996124
 O     13   2   1     3.962523348425    88.56563561   324.73541704
 O     11   3   1     3.612784168313    79.97508120    33.55729177
 O     17   4   1     3.612784168313    79.97508120   326.44270823
 O      2   1   3     3.962523348425    35.34102494   198.00140048
 O     23   1   2     3.612784168313    79.97508120   320.33595415
 O      2   1   3     3.962541905283    73.09249855    86.64637210
 O      5   2   1     3.612784168313    79.97508120    11.03950438
 O      2   1   3     3.962523348425    56.40797508   347.60791190
 O     12   3   1     3.612795078685   121.48234609   286.77883884
 O      5   2   1     3.612805989024   121.48213417   264.26052207
 O     23   1   2     3.612805989024   121.48213417    67.11493645
 O      6   5   2     3.612795078685    70.52896076    60.00003876
 O     17   4   1     3.612805989024   121.48213417   219.66372593
 O      8   5   2     3.962523348425    73.09766395   333.30739850
 O     11   3   1     3.612805989024    29.49638414   213.55729177
 O      8   5   2     3.962541905283   153.32636472   286.77854691

---------------------
BASIS SET INFORMATION
---------------------
There are 2 groups of distinct atoms

 Group   1 Type Fe  : 14s9p5d1f contracted to 5s3p2d1f pattern {63311/531/41/1}
 Group   2 Type O   : 7s4p1d contracted to 3s2p1d pattern {511/31/1}

Atom   0Fe   basis set group =>   1
Atom   1Fe   basis set group =>   1
Atom   2Fe   basis set group =>   1
Atom   3Fe   basis set group =>   1
Atom   4Fe   basis set group =>   1
Atom   5Fe   basis set group =>   1
Atom   6Fe   basis set group =>   1
Atom   7Fe   basis set group =>   1
Atom   8Fe   basis set group =>   1
Atom   9Fe   basis set group =>   1
Atom  10Fe   basis set group =>   1
Atom  11Fe   basis set group =>   1
Atom  12Fe   basis set group =>   1
Atom  13Fe   basis set group =>   1
Atom  14Fe   basis set group =>   1
Atom  15Fe   basis set group =>   1
Atom  16Fe   basis set group =>   1
Atom  17Fe   basis set group =>   1
Atom  18Fe   basis set group =>   1
Atom  19Fe   basis set group =>   1
Atom  20Fe   basis set group =>   1
Atom  21Fe   basis set group =>   1
Atom  22Fe   basis set group =>   1
Atom  23Fe   basis set group =>   1
Atom  24O    basis set group =>   2
Atom  25O    basis set group =>   2
Atom  26O    basis set group =>   2
Atom  27O    basis set group =>   2
Atom  28O    basis set group =>   2
Atom  29O    basis set group =>   2
Atom  30O    basis set group =>   2
Atom  31O    basis set group =>   2
Atom  32O    basis set group =>   2
Atom  33O    basis set group =>   2
Atom  34O    basis set group =>   2
Atom  35O    basis set group =>   2
Atom  36O    basis set group =>   2
Atom  37O    basis set group =>   2
Atom  38O    basis set group =>   2
Atom  39O    basis set group =>   2
Atom  40O    basis set group =>   2
Atom  41O    basis set group =>   2
Atom  42O    basis set group =>   2
Atom  43O    basis set group =>   2
Atom  44O    basis set group =>   2
Atom  45O    basis set group =>   2
Atom  46O    basis set group =>   2
Atom  47O    basis set group =>   2
Atom  48O    basis set group =>   2
Atom  49O    basis set group =>   2
Atom  50O    basis set group =>   2
Atom  51O    basis set group =>   2
Atom  52O    basis set group =>   2
Atom  53O    basis set group =>   2
Atom  54O    basis set group =>   2
Atom  55O    basis set group =>   2
-------------------------------
AUXILIARY BASIS SET INFORMATION
-------------------------------
There are 2 groups of distinct atoms

 Group   1 Type Fe  : 19s5p5d3f3g contracted to 8s5p5d2f3g pattern {121111111/11111/11111/21/111}
 Group   2 Type O   : 12s5p4d2f1g contracted to 6s4p3d1f1g pattern {711111/2111/211/2/1}

Atom   0Fe   basis set group =>   1
Atom   1Fe   basis set group =>   1
Atom   2Fe   basis set group =>   1
Atom   3Fe   basis set group =>   1
Atom   4Fe   basis set group =>   1
Atom   5Fe   basis set group =>   1
Atom   6Fe   basis set group =>   1
Atom   7Fe   basis set group =>   1
Atom   8Fe   basis set group =>   1
Atom   9Fe   basis set group =>   1
Atom  10Fe   basis set group =>   1
Atom  11Fe   basis set group =>   1
Atom  12Fe   basis set group =>   1
Atom  13Fe   basis set group =>   1
Atom  14Fe   basis set group =>   1
Atom  15Fe   basis set group =>   1
Atom  16Fe   basis set group =>   1
Atom  17Fe   basis set group =>   1
Atom  18Fe   basis set group =>   1
Atom  19Fe   basis set group =>   1
Atom  20Fe   basis set group =>   1
Atom  21Fe   basis set group =>   1
Atom  22Fe   basis set group =>   1
Atom  23Fe   basis set group =>   1
Atom  24O    basis set group =>   2
Atom  25O    basis set group =>   2
Atom  26O    basis set group =>   2
Atom  27O    basis set group =>   2
Atom  28O    basis set group =>   2
Atom  29O    basis set group =>   2
Atom  30O    basis set group =>   2
Atom  31O    basis set group =>   2
Atom  32O    basis set group =>   2
Atom  33O    basis set group =>   2
Atom  34O    basis set group =>   2
Atom  35O    basis set group =>   2
Atom  36O    basis set group =>   2
Atom  37O    basis set group =>   2
Atom  38O    basis set group =>   2
Atom  39O    basis set group =>   2
Atom  40O    basis set group =>   2
Atom  41O    basis set group =>   2
Atom  42O    basis set group =>   2
Atom  43O    basis set group =>   2
Atom  44O    basis set group =>   2
Atom  45O    basis set group =>   2
Atom  46O    basis set group =>   2
Atom  47O    basis set group =>   2
Atom  48O    basis set group =>   2
Atom  49O    basis set group =>   2
Atom  50O    basis set group =>   2
Atom  51O    basis set group =>   2
Atom  52O    basis set group =>   2
Atom  53O    basis set group =>   2
Atom  54O    basis set group =>   2
Atom  55O    basis set group =>   2
------------------------------------------------------------------------------
                           ORCA GTO INTEGRAL CALCULATION
                           -- RI-GTO INTEGRALS CHOSEN --
------------------------------------------------------------------------------

                         BASIS SET STATISTICS AND STARTUP INFO

Gaussian basis set:
 # of primitive gaussian shells          ... 1080
 # of primitive gaussian functions       ... 2520
 # of contracted shells                  ...  456
 # of contracted basis functions         ... 1192
 Highest angular momentum                ...    3
 Maximum contraction depth               ...    6
Auxiliary gaussian basis set:
 # of primitive gaussian shells          ... 1608
 # of primitive gaussian functions       ... 4808
 # of contracted shells                  ... 1032
 # of contracted aux-basis functions     ... 3704
 Highest angular momentum                ...    4
 Maximum contraction depth               ...   12
Ratio of auxiliary to basis functions    ...  3.11
Integral package used                  ... LIBINT
 One Electron integrals                  ... done
 Ordering auxiliary basis shells         ... done
 Integral threshhold             Thresh  ...  2.500e-11
 Primitive cut-off               TCut    ...  2.500e-12
 Pre-screening matrix                    ... done
 Shell pair data                         ... 
 Ordering of the shell pairs             ... done (   0.009 sec) 55052 of 104196 pairs
 Determination of significant pairs      ... done (   0.000 sec)
 Creation of shell pair data             ... done (   0.009 sec)
 Storage of shell pair data              ... done (   0.030 sec)
 Shell pair data done in (   0.047 sec)
 Computing two index integrals           ... done
 Cholesky decomposition of the V-matrix  ... done


Timings:
 Total evaluation time                   ...   3.560 sec (  0.059 min)
 One electron matrix time                ...   0.651 sec (  0.011 min) = 18.3%
 Schwartz matrix evaluation time         ...   1.904 sec (  0.032 min) = 53.5%
 Two index repulsion integral time       ...   0.351 sec (  0.006 min) =  9.9%
 Cholesky decomposition of V             ...   0.590 sec (  0.010 min) = 16.6%
 Three index repulsion integral time     ...   0.000 sec (  0.000 min) =  0.0%

-------------------------------------------------------------------------------
                                 ORCA SCF
-------------------------------------------------------------------------------

------------
SCF SETTINGS
------------
Hamiltonian:
 Density Functional     Method          .... DFT(GTOs)
 Exchange Functional    Exchange        .... B88
   X-Alpha parameter    XAlpha          ....  0.666667
   Becke's b parameter  XBeta           ....  0.004200
 Correlation Functional Correlation     .... P86
 LDA part of GGA corr.  LDAOpt          .... PW91-LDA
 Gradients option       PostSCFGGA      .... off
   Density functional embedding theory  .... OFF
 RI-approximation to the Coulomb term is turned on
   Number of auxiliary basis functions  .... 3704


General Settings:
 Integral files         IntName         .... Fe3O4
 Hartree-Fock type      HFTyp           .... RHF
 Total Charge           Charge          ....    0
 Multiplicity           Mult            ....    1
 Number of Electrons    NEL             ....  880
 Basis Dimension        Dim             .... 1192
 Nuclear Repulsion      ENuc            ....  41061.1302867216 Eh

Convergence Acceleration:
 DIIS                   CNVDIIS         .... on
   Start iteration      DIISMaxIt       ....    12
   Startup error        DIISStart       ....  0.200000
   # of expansion vecs  DIISMaxEq       ....     5
   Bias factor          DIISBfac        ....   1.050
   Max. coefficient     DIISMaxC        ....  10.000
 Newton-Raphson         CNVNR           .... off
 SOSCF                  CNVSOSCF        .... off
 Level Shifting         CNVShift        .... on
   Level shift para.    LevelShift      ....    0.2500
   Turn off err/grad.   ShiftErr        ....    0.0010
 Zerner damping         CNVZerner       .... off
 Static damping         CNVDamp         .... on
   Fraction old density DampFac         ....    0.7000
   Max. Damping (<1)    DampMax         ....    0.9800
   Min. Damping (>=0)   DampMin         ....    0.0000
   Turn off err/grad.   DampErr         ....    0.1000
 Fernandez-Rico         CNVRico         .... off

SCF Procedure:
 Maximum # iterations   MaxIter         ....   125
 SCF integral mode      SCFMode         .... Direct
   Integral package                     .... LIBINT
 Reset frequency        DirectResetFreq ....    20
 Integral Threshold     Thresh          ....  2.500e-11 Eh
 Primitive CutOff       TCut            ....  2.500e-12 Eh

Convergence Tolerance:
 Convergence Check Mode ConvCheckMode   .... Total+1el-Energy
 Convergence forced     ConvForced      .... 1
 Energy Change          TolE            ....  1.000e-08 Eh
 1-El. energy change                    ....  1.000e-05 Eh
 DIIS Error             TolErr          ....  5.000e-07


Diagonalization of the overlap matrix:
Smallest eigenvalue                        ... 1.038e-03
Time for diagonalization                   ...    0.237 sec
Threshold for overlap eigenvalues          ... 1.000e-08
Number of eigenvalues below threshold      ... 0
Time for construction of square roots      ...    0.127 sec
Total time needed                          ...    0.367 sec

-------------------
DFT GRID GENERATION
-------------------

General Integration Accuracy     IntAcc      ...  4.340
Radial Grid Type                 RadialGrid  ... Gauss-Chebyshev
Angular Grid (max. acc.)         AngularGrid ... Lebedev-110
Angular grid pruning method      GridPruning ... 3 (G Style)
Weight generation scheme         WeightScheme... Becke
Basis function cutoff            BFCut       ...    1.0000e-11
Integration weight cutoff        WCut        ...    1.0000e-14
Grids for H and He will be reduced by one unit

# of grid points (after initial pruning)     ... 124800 (   0.1 sec)
# of grid points (after weights+screening)   ... 108525 (   1.0 sec)
nearest neighbour list constructed           ...    0.0 sec
Grid point re-assignment to atoms done       ...    0.0 sec
Grid point division into batches done        ...    0.1 sec
Reduced shell lists constructed in    1.9 sec

Total number of grid points                  ...   108525
Total number of batches                      ...     1722
Average number of points per batch           ...       63
Average number of grid points per atom       ...     1938
Average number of shells per batch           ...   138.52 (30.38%)
Average number of basis functions per batch  ...   313.16 (26.27%)
Average number of large shells per batch     ...    86.15 (62.19%)
Average number of large basis fcns per batch ...   182.41 (58.25%)
Maximum spatial batch extension              ...  26.18, 25.82, 25.89 au
Average spatial batch extension              ...   2.91,  2.92,  2.92 au

Time for grid setup =    2.951 sec

------------------------------
INITIAL GUESS: MODEL POTENTIAL
------------------------------
Loading Hartree-Fock densities                     ... done
Calculating cut-offs                               ... done
Setting up the integral package                    ... done
Initializing the effective Hamiltonian             ... done
Starting the Coulomb interaction                   ... done (  10.0 sec)
Reading the grid                                   ... done
Mapping shells                                     ... done
Starting the XC term evaluation                    ... done (   2.6 sec)
  promolecular density results
     # of electrons  =    880.117704904
     EX              =  -1567.119388076
     EC              =    -41.937014988
     EX+EC           =  -1609.056403064
Transforming the Hamiltonian                       ... done (   0.1 sec)
Diagonalizing the Hamiltonian                      ... done (   0.2 sec)
Back transforming the eigenvectors                 ... done (   0.0 sec)
Now organizing SCF variables                       ... done
                      ------------------
                      INITIAL GUESS DONE (  16.3 sec)
                      ------------------
--------------
SCF ITERATIONS
--------------
ITER       Energy         Delta-E        Max-DP      RMS-DP      [F,P]     Damp
               ***  Starting incremental Fock matrix formation  ***
  0 -32712.7892767922   0.00000000000025.55794871  0.03260571  0.6993432 0.7000
  1 -32704.6050080869   8.18426870538021.88702734  0.04552351  0.5341562 0.7000
  2 -32644.0628496231  60.54215846380226.35629731  0.04099470  0.5865812 0.7000
  3 -32465.8718565410 178.19099308209864.72186453  0.08034866  0.9039874 0.7000
  4 -32225.7359454227 240.13591111826817.90255332  0.03977088  0.8536028 0.7000
  5 -32340.6333168141-114.89737139141716.17671217  0.04142217  0.5543527 0.7000
  6 -32317.4677795173  23.16553729680217.33690401  0.04044161  0.5715258 0.7000
  7 -32285.2869159755  32.18086354177627.70961597  0.05663687  0.5675848 0.7000
  8 -32219.8765917671  65.41032420845320.53044266  0.03959029  0.6523368 0.7000
  9 -32285.1798967135 -65.30330494638511.06084197  0.03311656  0.6019360 0.7000
 10 -32239.6302980623  45.54959865116717.55558056  0.03762986  0.6817562 0.7000
 11 -32272.2883075937 -32.65800953142011.32077724  0.03590723  0.6253496 0.7000
                               ***Turning on DIIS***
 12 -32213.4940169895  58.79429060419415.86167073  0.03658016  0.6964773 0.7000
 13 -32263.7458985713 -50.25188158177516.51767403  0.03337878  0.6429450 0.7000
 14 -32328.2498601455 -64.50396157421312.01833895  0.02535212  0.6447522 0.7000
 15 -32447.7428812248-119.493021079310 8.46421450  0.01776626  0.7564078 0.7000
 16 -32512.0542361153 -64.311354890509 5.94408333  0.01247665  0.9459428 0.7000
 17 -32549.6403722688 -37.58613615344154.80007602  0.09279055  1.1864959 0.7000
 18 -32307.5788112734 242.061560995346 7.81418398  0.01956910  0.8049866 0.7000
 19 -32096.6837077193 210.895103554110 6.29244965  0.01623543  1.2716047 0.7000
               *** Restarting incremental Fock matrix formation ***
                                   *** Resetting DIIS ***
 20 -32116.1979510621 -19.51424334281220.22994766  0.05217192  1.4515140 0.7000
 21 -32427.3974678334-311.19951677126715.32210313  0.02924387  0.6547554 0.7000
 22 -32474.3043561054 -46.90688827203812.98532807  0.02484175  0.5739938 0.7000
 23 -32573.9110927835 -99.606736678077 9.58540593  0.01826648  0.6285278 0.7000
 24 -32584.1919920188 -10.280899235251 7.17458925  0.01376173  0.7477172 0.7000
 25 -32576.5244454387   7.667546580102 5.05321262  0.00970365  0.9697911 0.7000
 26 -32563.9688512315  12.555594207195 2.48951528  0.00729504  1.1202673 0.7000
 27 -32565.1540929895  -1.18524175805212.68901793  0.02441863  1.3868231 0.7000
 28 -32575.8486223937 -10.694529404143 6.81590069  0.02126600  1.3556462 0.7000
 29 -32514.7329027812  61.115719612506 6.46500343  0.01286183  1.2374811 0.7000
 30 -32568.1003222119 -53.367419430746 4.77266502  0.01155656  1.1335518 0.7000
 31 -32654.7080128114 -86.607690599485 3.32727758  0.01094984  0.7051430 0.7000
 32 -32663.8393373359  -9.131324524547 3.36283200  0.01111473  0.7415254 0.7000
 33 -32638.4294481990  25.409889136914 2.22658173  0.00862377  0.6626847 0.7000
 34 -32604.6052311719  33.824217027148 2.93491325  0.00745371  0.7861866 0.7000
 35 -32609.5763643675  -4.971133195679 2.15774438  0.00605637  0.9040672 0.7000
 36 -32612.3817709168  -2.805406549232 7.00909910  0.01912430  1.1089605 0.7000
 37 -32552.9947931454  59.386977771392 8.61361140  0.02588516  1.3094447 0.7000
 38 -32451.3511836566 101.64360948883417.48815920  0.02916417  1.3755896 0.7000
 39 -32425.2886708269  26.06251282967421.25845952  0.03379976  1.3075481 0.7000
               *** Restarting incremental Fock matrix formation ***
                                   *** Resetting DIIS ***
 40 -32565.5246662866-140.235995459727 8.86636078  0.03284555  1.1240834 0.7000
 41 -32531.7691507750  33.755515511613 6.11837054  0.01633067  0.5619270 0.7000
 42 -32573.8417042453 -42.072553470302 7.33788978  0.01710818  0.6249424 0.7000
 43 -32632.3625334591 -58.520829213841 5.36099724  0.01276896  0.8158080 0.7000
 44 -32659.4401876273 -27.077654168119 3.71427772  0.00898663  0.8305403 0.7000
 45 -32658.5540676530   0.886119974290 2.48662317  0.00735810  1.0180884 0.7000
 46 -32615.9907605270  42.563307126002 4.66345396  0.01310188  1.0509408 0.7000
 47 -32633.7484069598 -17.757646432838 8.37191046  0.01328661  1.2183240 0.7000
 48 -32641.4850681687  -7.736661208924 1.94345784  0.00705481  1.4051217 0.7000
 49 -32649.6205621122  -8.135493943453 1.63443780  0.00605154  1.3028643 0.7000
 50 -32657.1506730237  -7.530110911532 2.48661535  0.00803495  1.2454433 0.7000
 51 -32664.9852861210  -7.834613097330 3.47342485  0.00983915  0.9559531 0.7000
 52 -32654.9443039818  10.040982139210 1.90555132  0.00650592  0.9033605 0.7000
 53 -32657.6759201582  -2.731616176367 1.47349466  0.00573052  1.0327039 0.7000
 54 -32651.9041520187   5.771768139464 1.91517910  0.00594517  0.9810849 0.7000
 55 -32666.3545691039 -14.450417085136 1.50645335  0.00507414  1.0645664 0.7000
 56 -32668.6336621709  -2.27909306704531.13287979  0.03853116  1.2275493 0.7000
 57 -32583.2446194178  85.38904275312210.04337513  0.01723125  0.8683417 0.7000
 58 -32598.2612213092 -15.016601891388 8.88005092  0.01769137  1.0263342 0.7000
 59 -32590.3042326329   7.956988676247 4.11474176  0.01266300  1.1926212 0.7000
               *** Restarting incremental Fock matrix formation ***
                                   *** Resetting DIIS ***
 60 -32617.6659882606 -27.36175562765127.35595096  0.05195574  0.8358295 0.7000
 61 -32541.4833800810  76.18260817958810.23643970  0.02069574  0.7665159 0.7000
 62 -32612.8724262841 -71.389046203141 7.75483443  0.01601758  0.6209739 0.7000
 63 -32637.1718544248 -24.299428140686 5.42545251  0.01178797  0.8468002 0.7000
 64 -32654.0411168480 -16.869262423192 3.85198160  0.00839153  0.9011638 0.7000
 65 -32654.5621243955  -0.521007547453 2.95700275  0.00713232  1.0161147 0.7000
 66 -32622.0186474715  32.54347692397325.27891736  0.03763655  1.1002084 0.7000
 67 -32573.9703491853  48.04829828618714.46821118  0.03132617  1.2729870 0.7000
 68 -32509.0358944807  64.93445470456210.05726064  0.02363788  1.1325171 0.7000
 69 -32555.5458479984 -46.509953517685 6.75476751  0.01853663  1.3140528 0.7000
 70 -32617.6037613391 -62.057913340679 7.33340227  0.01614689  1.2162393 0.7000
 71 -32645.2946693712 -27.69090803209811.57701218  0.02087508  0.6898201 0.7000
 72 -32583.3242207382  61.970448632979 3.15091132  0.01126958  0.7162403 0.7000
 73 -32584.1559723431  -0.831751604863 3.26646081  0.00942999  0.8325564 0.7000
 74 -32622.5963239037 -38.440351560617 8.03709207  0.01709550  1.0166366 0.7000
 75 -32618.5405407598   4.055783143907 2.71095418  0.00887960  1.0556003 0.7000
 76 -32615.0876755382   3.45286522158933.61335484  0.04440617  1.2128714 0.7000
 77 -32468.2970709669 146.790604571346 8.60058482  0.01984786  1.0761781 0.7000
 78 -32478.3707228577 -10.073651890852 7.71571198  0.02417232  1.2513982 0.7000
 79 -32550.5416849798 -72.170962122109 7.48892970  0.02297919  1.0596344 0.7000
               *** Restarting incremental Fock matrix formation ***
                                   *** Resetting DIIS ***
 80 -32557.1857105174  -6.64402553761552.33826898  0.08594252  1.1980558 0.7000
 81 -32349.9542392466 207.23147127081018.95694176  0.03140329  0.9160578 0.7000
 82 -32524.5670570820-174.61281783539014.59345263  0.02383587  0.6103442 0.7000
 83 -32601.0540469780 -76.48698989593010.25107523  0.01720158  0.7810725 0.7000
